Project-authored synthetic frame t=0.000
2
    1LJ    AR1    1   0.100   0.100   0.100
    1LJ    AR2    2   0.400   0.400   0.400
   1.00000   1.00000   1.00000
Project-authored synthetic frame t=0.008
2
    1LJ    AR1    1   0.101   0.100   0.100
    1LJ    AR2    2   0.399   0.400   0.400
   1.00000   1.00000   1.00000
Project-authored synthetic frame t=0.016
2
    1LJ    AR1    1   0.102   0.100   0.100
    1LJ    AR2    2   0.398   0.400   0.400
   1.00000   1.00000   1.00000
Project-authored synthetic frame t=0.024
2
    1LJ    AR1    1   0.103   0.100   0.100
    1LJ    AR2    2   0.397   0.400   0.400
   1.00000   1.00000   1.00000
